ITEM: TIMESTEP
0
ITEM: NUMBER OF ATOMS
16
ITEM: BOX BOUNDS pp pp pp
-3.1622776601683795e+00 3.1622776601683795e+00
-3.1622776601683795e+00 3.1622776601683795e+00
-3.1622776601683800e-01 3.1622776601683800e-01
ITEM: ATOMS id type x y xu yu mux muy muz fx fy fz
1 1 3.15777 3.1589 -3.16679 -3.16565 -0.949717 0.313108 0 0.000207539 -0.0548593 0
2 1 -1.58459 -3.16136 -1.58459 -3.16136 0.447707 -0.894181 0 6.38999e-05 0.00435203 0
3 1 -3.16072 -1.57466 -3.16072 -1.57466 -0.876658 -0.481113 0 0.0506425 0.0552794 0
4 1 -1.58491 -1.5802 -1.58491 -1.5802 0.997438 0.0715357 0 -0.00942418 -0.00643663 0
5 1 3.16172 0.00298807 -3.16283 0.00298807 0.527137 -0.84978 0 -0.000537134 0.00879021 0
6 1 -1.58408 0.00327427 -1.58408 0.00327427 -0.53073 -0.847541 0 -0.0254452 0.0239434 0
7 1 3.15446 1.57978 -3.1701 1.57978 -0.492258 0.870449 0 -0.0734735 -0.0104312 0
8 1 -1.58712 1.58041 -1.58712 1.58041 -0.595328 0.803483 0 -0.0352037 -0.0227214 0
9 1 -0.00222217 3.15852 -0.00222217 -3.16603 0.633403 0.773822 0 0.0247933 -0.0381107 0
10 1 1.57522 3.16143 1.57522 -3.16312 0.259066 0.96586 0 -0.0174203 -0.0304295 0
11 1 -0.00716032 -1.5835 -0.00716032 -1.5835 -0.9996 -0.0282695 0 -0.0183628 -0.0211109 0
12 1 1.57595 -1.58144 1.57595 -1.58144 0.61483 -0.78866 0 -0.01832 -0.000530496 0
13 1 -0.00157434 0.00375061 -0.00157434 0.00375061 -0.706114 -0.708098 0 -0.00813395 0.0175866 0
14 1 1.58255 0.00103454 1.58255 0.00103454 -0.626303 0.77958 0 0.0296652 0.00919333 0
15 1 0.00421729 1.58607 0.00421729 1.58607 0.63707 0.770806 0 0.0246393 0.0428144 0
16 1 1.58881 1.58358 1.58881 1.58358 -0.965621 0.259955 0 0.0763091 0.0226707 0
ITEM: TIMESTEP
50
ITEM: NUMBER OF ATOMS
16
ITEM: BOX BOUNDS pp pp pp
-3.1622776601683795e+00 3.1622776601683795e+00
-3.1622776601683795e+00 3.1622776601683795e+00
-3.1622776601683800e-01 3.1622776601683800e-01
ITEM: ATOMS id type x y xu yu mux muy muz fx fy fz
1 1 3.21199 3.15682 -3.11257 -3.16773 -0.939801 0.341722 0 0.462727 -0.275353 0
2 1 -1.59888 -3.15661 -1.59888 -3.15661 0.45136 -0.892342 0 -0.374028 -0.0828726 0
3 1 -3.19942 -1.53838 -3.19942 -1.53838 -0.873924 -0.486062 0 -0.0835998 0.318912 0
4 1 -1.5751 -1.57705 -1.5751 -1.57705 0.999861 0.0166908 0 0.418779 -0.0315618 0
5 1 3.07887 0.0223729 -3.24569 0.0223729 0.497682 -0.867359 0 -0.573232 -0.0838634 0
6 1 -1.62868 -0.0058207 -1.62868 -0.0058207 -0.582944 -0.812512 0 -0.0982073 -0.18943 0
7 1 3.19464 1.58481 -3.12992 1.58481 -0.493311 0.869853 0 0.575412 0.0164192 0
8 1 -1.61446 1.61168 -1.61446 1.61168 -0.600642 0.799518 0 -0.541088 0.276342 0
9 1 -0.000502934 3.19316 -0.000502934 -3.1314 0.61862 0.78569 0 -0.0214049 0.486816 0
10 1 1.59611 3.16855 1.59611 -3.15601 0.260143 0.96557 0 -0.20332 -0.148812 0
11 1 -0.0538349 -1.61665 -0.0538349 -1.61665 -0.999509 -0.0313282 0 -0.165753 -0.393735 0
12 1 1.51747 -1.55951 1.51747 -1.55951 0.566179 -0.824282 0 -0.0546963 0.221725 0
13 1 0.0147455 -0.0034642 0.0147455 -0.0034642 -0.684577 -0.728941 0 0.176166 0.153925 0
14 1 1.61472 -0.0124362 1.61472 -0.0124362 -0.663568 0.748116 0 0.505564 -0.280145 0
15 1 0.0110172 1.56572 0.0110172 1.56572 0.631849 0.775092 0 0.480912 -0.169681 0
16 1 1.53252 1.60806 1.53252 1.60806 -0.953178 0.30241 0 -0.504229 0.181313 0
ITEM: TIMESTEP
100
ITEM: NUMBER OF ATOMS
16
ITEM: BOX BOUNDS pp pp pp
-3.1622776601683795e+00 3.1622776601683795e+00
-3.1622776601683795e+00 3.1622776601683795e+00
-3.1622776601683800e-01 3.1622776601683800e-01
ITEM: ATOMS id type x y xu yu mux muy muz fx fy fz
1 1 3.23704 3.10606 -3.08751 -3.2185 -0.93715 0.348928 0 1.0164 -0.459137 0
2 1 -1.62745 -3.13379 -1.62745 -3.13379 0.437943 -0.899003 0 -0.617395 -0.012267 0
3 1 -3.23909 -1.55885 -3.23909 -1.55885 -0.878744 -0.477293 0 -0.315987 0.435241 0
4 1 -1.56107 -1.57946 -1.56107 -1.57946 0.998683 0.0513091 0 0.515425 -0.0620482 0
5 1 3.06829 0.0173895 -3.25627 0.0173895 0.51477 -0.857328 0 -0.611358 0.0623108 0
6 1 -1.63254 -0.0301767 -1.63254 -0.0301767 -0.553526 -0.832832 0 0.027263 -0.360521 0
7 1 3.20579 1.56589 -3.11877 1.56589 -0.519344 0.854565 0 0.339647 0.118429 0
8 1 -1.56724 1.61866 -1.56724 1.61866 -0.603751 0.797173 0 -0.0645469 0.363065 0
9 1 0.00384554 3.23267 0.00384554 -3.09189 0.664912 0.746922 0 0.43492 0.597306 0
10 1 1.52377 3.21129 1.52377 -3.11326 0.310145 0.950689 0 -0.855358 0.0238689 0
11 1 -0.0237558 -1.61386 -0.0237558 -1.61386 -0.998983 -0.045096 0 0.0997447 -0.572934 0
12 1 1.50101 -1.51355 1.50101 -1.51355 0.561641 -0.827381 0 -0.23605 0.218407 0
13 1 -0.00100734 0.00929216 -0.00100734 0.00929216 -0.675762 -0.73712 0 0.1679 -0.0330382 0
14 1 1.59363 0.0183263 1.59363 0.0183263 -0.673524 0.739165 0 0.481726 -0.312088 0
15 1 -0.0302908 1.62313 -0.0302908 1.62313 0.66003 0.751239 0 -0.181275 0.0490347 0
16 1 1.56183 1.61496 1.56183 1.61496 -0.949272 0.314457 0 -0.201057 -0.0556292 0
ITEM: TIMESTEP
150
ITEM: NUMBER OF ATOMS
16
ITEM: BOX BOUNDS pp pp pp
-3.1622776601683795e+00 3.1622776601683795e+00
-3.1622776601683795e+00 3.1622776601683795e+00
-3.1622776601683800e-01 3.1622776601683800e-01
ITEM: ATOMS id type x y xu yu mux muy muz fx fy fz
1 1 3.22043 3.14633 -3.10413 -3.17822 -0.946083 0.323923 0 1.04712 -0.254745 0
2 1 -1.68456 -3.10101 -1.68456 -3.10101 0.405282 -0.914192 0 -1.07124 0.321167 0
3 1 -3.26249 -1.5372 -3.26249 -1.5372 -0.889097 -0.457718 0 -0.204208 0.480634 0
4 1 -1.59609 -1.56617 -1.59609 -1.56617 0.999223 0.0394203 0 0.0302446 -0.113048 0
5 1 3.09753 0.00644172 -3.22702 0.00644172 0.482738 -0.875765 0 -0.399716 -0.216008 0
6 1 -1.61695 -0.0170706 -1.61695 -0.0170706 -0.525087 -0.851048 0 -0.185898 -0.21905 0
7 1 3.17275 1.58527 -3.1518 1.58527 -0.551465 0.834198 0 0.182049 0.105053 0
8 1 -1.54607 1.59668 -1.54607 1.59668 -0.614944 0.788571 0 0.440832 -0.0260416 0
9 1 0.047684 3.29427 0.047684 -3.03028 0.666614 0.745403 0 1.01575 0.986328 0
10 1 1.52288 3.21359 1.52288 -3.11097 0.304451 0.952528 0 -1.02061 0.168667 0
11 1 0.0331437 -1.59361 0.0331437 -1.59361 -0.997775 -0.066666 0 0.927606 -0.735282 0
12 1 1.47459 -1.52655 1.47459 -1.52655 0.529 -0.848622 0 -0.656581 0.211829 0
13 1 0.0527017 0.0326858 0.0527017 0.0326858 -0.722464 -0.691408 0 0.59204 0.0357108 0
14 1 1.57565 -0.00634424 1.57565 -0.00634424 -0.664637 0.747167 0 -0.0887591 -0.51758 0
15 1 -0.0791087 1.62301 -0.0791087 1.62301 0.692255 0.721653 0 -0.454416 -0.349637 0
16 1 1.52889 1.62567 1.52889 1.62567 -0.934683 0.355482 0 -0.154217 0.122002 0
ITEM: TIMESTEP
200
ITEM: NUMBER OF ATOMS
16
ITEM: BOX BOUNDS pp pp pp
-3.1622776601683795e+00 3.1622776601683795e+00
-3.1622776601683795e+00 3.1622776601683795e+00
-3.1622776601683800e-01 3.1622776601683800e-01
ITEM: ATOMS id type x y xu yu mux muy muz fx fy fz
1 1 3.22764 3.14378 -3.09692 -3.18077 -0.942244 0.334927 0 1.07027 -0.200552 0
2 1 -1.70397 -3.08361 -1.70397 -3.08361 0.35328 -0.935518 0 -1.1019 0.736387 0
3 1 -3.2375 -1.56448 -3.2375 -1.56448 -0.88331 -0.468789 0 0.0680386 0.206528 0
4 1 -1.60069 -1.60432 -1.60069 -1.60432 0.99591 0.0903517 0 -0.157163 -0.526429 0
5 1 3.11003 0.00928176 -3.21453 0.00928176 0.457369 -0.889277 0 -0.191053 -0.0432441 0
6 1 -1.62664 -0.0137532 -1.62664 -0.0137532 -0.507007 -0.861942 0 -0.164138 0.115157 0
7 1 3.14817 1.60469 -3.17638 1.60469 -0.543219 0.839591 0 -0.0337003 0.23238 0
8 1 -1.5334 1.57039 -1.5334 1.57039 -0.60045 0.799662 0 0.661768 -0.292787 0
9 1 0.0264619 3.32351 0.0264619 -3.00105 0.731159 0.682208 0 0.938168 0.975559 0
10 1 1.52168 3.21967 1.52168 -3.10489 0.307799 0.951451 0 -0.905708 -0.0380592 0
11 1 0.0375478 -1.53616 0.0375478 -1.53616 -0.99479 -0.101944 0 0.877405 -0.658344 0
12 1 1.48251 -1.50124 1.48251 -1.50124 0.525118 -0.85103 0 -0.786793 -0.0339288 0
13 1 0.0232672 0.0739436 0.0232672 0.0739436 -0.7212 -0.692727 0 0.441722 0.260535 0
14 1 1.56261 0.092485 1.56261 0.092485 -0.700029 0.714114 0 -0.140293 0.0398874 0
15 1 -0.0845537 1.62088 -0.0845537 1.62088 0.700784 0.713373 0 -0.538046 -0.694249 0
16 1 1.52924 1.65777 1.52924 1.65777 -0.931291 0.364277 0 -0.0385773 -0.0788391 0
ITEM: TIMESTEP
250
ITEM: NUMBER OF ATOMS
16
ITEM: BOX BOUNDS pp pp pp
-3.1622776601683795e+00 3.1622776601683795e+00
-3.1622776601683795e+00 3.1622776601683795e+00
-3.1622776601683800e-01 3.1622776601683800e-01
ITEM: ATOMS id type x y xu yu mux muy muz fx fy fz
1 1 3.22729 3.12329 -3.09726 -3.20127 -0.947393 0.320073 0 0.953849 -0.509723 0
2 1 -1.74847 -3.06961 -1.74847 -3.06961 0.340207 -0.94035 0 -0.784881 0.780505 0
3 1 -3.18908 -1.54759 -3.18908 -1.54759 -0.882548 -0.470223 0 0.238672 0.668933 0
4 1 -1.56798 -1.61735 -1.56798 -1.61735 0.997094 0.0761872 0 -0.118425 -0.829546 0
5 1 3.12888 -0.0601518 -3.19568 -0.0601518 0.419855 -0.907591 0 -0.144565 -0.731543 0
6 1 -1.59764 0.037821 -1.59764 0.037821 -0.513654 -0.857997 0 0.00796229 0.367083 0
7 1 3.13006 1.63162 -3.1945 1.63162 -0.570873 0.821039 0 -0.305037 0.848046 0
8 1 -1.50102 1.59585 -1.50102 1.59585 -0.632917 0.77422 0 0.723625 -0.412564 0
9 1 -0.048187 3.28486 -0.048187 -3.0397 0.743923 0.668265 0 0.542492 0.680527 0
10 1 1.5223 3.20566 1.5223 -3.11889 0.351418 0.936219 0 -0.558049 -0.29651 0
11 1 0.0286578 -1.53312 0.0286578 -1.53312 -0.995338 -0.0964503 0 0.534067 -0.512111 0
12 1 1.4955 -1.48709 1.4955 -1.48709 0.520998 -0.853558 0 -0.77425 0.29267 0
13 1 0.032333 0.0864687 0.032333 0.0864687 -0.764551 -0.644564 0 0.458105 0.388737 0
14 1 1.55712 0.0748892 1.55712 0.0748892 -0.694794 0.719209 0 -0.331051 -0.140005 0
15 1 -0.0212032 1.6184 -0.0212032 1.6184 0.709837 0.704366 0 -0.330676 -0.608126 0
16 1 1.54882 1.64986 1.54882 1.64986 -0.943706 0.330784 0 -0.111838 0.0136248 0
ITEM: TIMESTEP
300
ITEM: NUMBER OF ATOMS
16
ITEM: BOX BOUNDS pp pp pp
-3.1622776601683795e+00 3.1622776601683795e+00
-3.1622776601683795e+00 3.1622776601683795e+00
-3.1622776601683800e-01 3.1622776601683800e-01
ITEM: ATOMS id type x y xu yu mux muy muz fx fy fz
1 1 3.27366 3.18701 -3.0509 -3.13754 -0.950238 0.311525 0 0.54433 0.00612467 0
2 1 -1.7275 -3.06088 -1.7275 -3.06088 0.308119 -0.951348 0 -0.552642 0.75762 0
3 1 -3.20974 -1.52125 -3.20974 -1.52125 -0.878518 -0.477709 0 0.0432356 0.766503 0
4 1 -1.55504 -1.58634 -1.55504 -1.58634 0.996564 0.0828284 0 0.000636173 -0.442259 0
5 1 3.11035 -0.0823285 -3.2142 -0.0823285 0.400583 -0.916261 0 -0.524696 -0.895403 0
6 1 -1.57592 -0.0223574 -1.57592 -0.0223574 -0.574367 -0.818598 0 0.257829 -0.232764 0
7 1 3.14871 1.58784 -3.17585 1.58784 -0.586 0.810311 0 -0.0707871 0.344512 0
8 1 -1.51152 1.61086 -1.51152 1.61086 -0.66176 0.749716 0 0.411397 -0.181167 0
9 1 -0.0197786 3.28659 -0.0197786 -3.03797 0.737711 0.675117 0 0.344989 1.1335 0
10 1 1.60979 3.18389 1.60979 -3.14066 0.329434 0.944179 0 -0.279412 -0.457377 0
11 1 0.0416507 -1.58349 0.0416507 -1.58349 -0.992846 -0.1194 0 0.518991 -0.860112 0
12 1 1.49634 -1.48458 1.49634 -1.48458 0.514231 -0.857652 0 -0.60754 0.483659 0
13 1 0.013573 0.107076 0.013573 0.107076 -0.759087 -0.650989 0 0.149142 0.930461 0
14 1 1.58899 0.0446425 1.58899 0.0446425 -0.704871 0.709335 0 0.0869289 -0.418522 0
15 1 0.0267991 1.54884 0.0267991 1.54884 0.662215 0.749314 0 0.19967 -1.07504 0
16 1 1.52032 1.65567 1.52032 1.65567 -0.949278 0.314437 0 -0.522072 0.140272 0
ITEM: TIMESTEP
350
ITEM: NUMBER OF ATOMS
16
ITEM: BOX BOUNDS pp pp pp
-3.1622776601683795e+00 3.1622776601683795e+00
-3.1622776601683795e+00 3.1622776601683795e+00
-3.1622776601683800e-01 3.1622776601683800e-01
ITEM: ATOMS id type x y xu yu mux muy muz fx fy fz
1 1 3.25337 3.17788 -3.07118 -3.14667 -0.957057 0.2899 0 0.857218 -0.070254 0
2 1 -1.72253 -3.09281 -1.72253 -3.09281 0.282542 -0.959255 0 -0.8718 0.435224 0
3 1 -3.19095 -1.53714 -3.19095 -1.53714 -0.861721 -0.507382 0 0.121633 0.680883 0
4 1 -1.57428 -1.57106 -1.57428 -1.57106 0.997371 0.0724693 0 0.0317039 -0.494498 0
5 1 3.03273 -0.0986686 -3.29183 -0.0986686 0.39133 -0.920251 0 -0.928591 -0.985895 0
6 1 -1.58063 0.0338541 -1.58063 0.0338541 -0.58014 -0.814517 0 0.334232 0.112157 0
7 1 3.14193 1.60755 -3.18263 1.60755 -0.612243 0.79067 0 0.0929115 0.621932 0
8 1 -1.5309 1.60901 -1.5309 1.60901 -0.655617 0.755094 0 0.302546 -0.154968 0
9 1 -0.00242676 3.25714 -0.00242676 -3.06742 0.69289 0.721043 0 0.626084 0.772574 0
10 1 1.56953 3.227 1.56953 -3.09756 0.382218 0.924072 0 -0.646416 -0.293228 0
11 1 -0.0053532 -1.60614 -0.0053532 -1.60614 -0.996209 -0.0869919 0 0.352002 -0.700011 0
12 1 1.49228 -1.51561 1.49228 -1.51561 0.515523 -0.856876 0 -0.535572 0.178528 0
13 1 0.0612052 0.0344442 0.0612052 0.0344442 -0.750496 -0.660875 0 0.588606 0.24233 0
14 1 1.56903 0.0375263 1.56903 0.0375263 -0.718008 0.696035 0 0.0457739 -0.618553 0
15 1 0.0169882 1.61662 0.0169882 1.61662 0.647973 0.761663 0 0.425341 -0.176037 0
16 1 1.48374 1.7054 1.48374 1.7054 -0.946936 0.321422 0 -0.795672 0.449816 0
ITEM: TIMESTEP
400
ITEM: NUMBER OF ATOMS
16
ITEM: BOX BOUNDS pp pp pp
-3.1622776601683795e+00 3.1622776601683795e+00
-3.1622776601683795e+00 3.1622776601683795e+00
-3.1622776601683800e-01 3.1622776601683800e-01
ITEM: ATOMS id type x y xu yu mux muy muz fx fy fz
1 1 3.24455 3.19699 -3.08001 -3.12756 -0.943169 0.332314 0 0.806978 -0.290055 0
2 1 -1.73428 -3.09653 -1.73428 -3.09653 0.297504 -0.954721 0 -0.72723 0.797674 0
3 1 -3.1889 -1.50396 -3.1889 -1.50396 -0.865454 -0.500988 0 -0.0486607 0.6648 0
4 1 -1.5784 -1.60562 -1.5784 -1.60562 0.99681 0.0798059 0 -0.0365103 -0.846337 0
5 1 2.98165 -0.0652055 -3.3429 -0.0652055 0.422524 -0.906352 0 -1.09786 -1.1143 0
6 1 -1.54318 0.0459066 -1.54318 0.0459066 -0.620807 -0.783964 0 0.552533 0.555809 0
7 1 3.10848 1.66237 -3.21608 1.66237 -0.640201 0.768207 0 -0.290674 0.876229 0
8 1 -1.48636 1.55992 -1.48636 1.55992 -0.631818 0.775117 0 0.767142 -0.519011 0
9 1 -0.0428724 3.25599 -0.0428724 -3.06857 0.678714 0.734402 0 0.473308 0.931789 0
10 1 1.55196 3.21947 1.55196 -3.10508 0.36359 0.931559 0 -0.511844 -0.785572 0
11 1 0.00537604 -1.62484 0.00537604 -1.62484 -0.997091 -0.0762264 0 0.271145 -0.788979 0
12 1 1.52372 -1.46996 1.52372 -1.46996 0.539154 -0.842207 0 -0.401742 0.570824 0
13 1 0.107178 0.0341163 0.107178 0.0341163 -0.735209 -0.67784 0 0.925146 0.486883 0
14 1 1.50415 0.0537943 1.50415 0.0537943 -0.720801 0.693142 0 -0.270809 -0.862609 0
15 1 0.0237935 1.58152 0.0237935 1.58152 0.625774 0.780005 0 0.222907 -0.407612 0
16 1 1.4895 1.76432 1.4895 1.76432 -0.94868 0.316237 0 -0.633831 0.730469 0
ITEM: TIMESTEP
450
ITEM: NUMBER OF ATOMS
16
ITEM: BOX BOUNDS pp pp pp
-3.1622776601683795e+00 3.1622776601683795e+00
-3.1622776601683795e+00 3.1622776601683795e+00
-3.1622776601683800e-01 3.1622776601683800e-01
ITEM: ATOMS id type x y xu yu mux muy muz fx fy fz
1 1 3.24577 3.16731 -3.07879 -3.15724 -0.950736 0.310002 0 0.946244 -0.507685 0
2 1 -1.71189 -3.0736 -1.71189 -3.0736 0.298961 -0.954265 0 -0.806683 0.908244 0
3 1 -3.19973 -1.4878 -3.19973 -1.4878 -0.875971 -0.482364 0 -0.289221 0.896865 0
4 1 -1.6026 -1.63227 -1.6026 -1.63227 0.999178 0.0405418 0 -0.0985808 -1.12061 0
5 1 2.93134 -0.108013 -3.39321 -0.108013 0.399296 -0.916822 0 -1.18148 -1.41959 0
6 1 -1.60625 0.047823 -1.60625 0.047823 -0.62554 -0.780192 0 0.418831 0.427624 0
7 1 3.12401 1.66639 -3.20054 1.66639 -0.652265 0.757991 0 -0.305688 1.1546 0
8 1 -1.45134 1.59929 -1.45134 1.59929 -0.584914 0.811095 0 0.742775 -0.307298 0
9 1 -0.0388444 3.2913 -0.0388444 -3.03325 0.678831 0.734294 0 0.340907 1.22157 0
10 1 1.55788 3.2448 1.55788 -3.07976 0.37351 0.927626 0 -0.442417 -0.383972 0
11 1 -0.0127216 -1.61251 -0.0127216 -1.61251 -0.991365 -0.13113 0 0.112309 -0.853362 0
12 1 1.56395 -1.47905 1.56395 -1.47905 0.478757 -0.877948 0 -0.000435734 0.584671 0
13 1 0.101283 0.029852 0.101283 0.029852 -0.710958 -0.703235 0 1.11527 0.600092 0
14 1 1.46589 0.0291131 1.46589 0.0291131 -0.719194 0.694809 0 -0.128259 -0.833998 0
15 1 0.0646214 1.5443 0.0646214 1.5443 0.587558 0.809182 0 0.380957 -0.745412 0
16 1 1.49774 1.72385 1.49774 1.72385 -0.932812 0.360364 0 -0.804537 0.378259 0
ITEM: TIMESTEP
500
ITEM: NUMBER OF ATOMS
16
ITEM: BOX BOUNDS pp pp pp
-3.1622776601683795e+00 3.1622776601683795e+00
-3.1622776601683795e+00 3.1622776601683795e+00
-3.1622776601683800e-01 3.1622776601683800e-01
ITEM: ATOMS id type x y xu yu mux muy muz fx fy fz
1 1 3.17882 3.12285 -3.14573 -3.20171 -0.952252 0.305313 0 0.770901 -0.820146 0
2 1 -1.74486 -3.04073 -1.74486 -3.04073 0.352707 -0.935734 0 -0.944829 1.25387 0
3 1 -3.1744 -1.43776 -3.1744 -1.43776 -0.88123 -0.472687 0 -0.0504205 0.717779 0
4 1 -1.57378 -1.64999 -1.57378 -1.64999 0.995064 0.0992376 0 0.114649 -1.28447 0
5 1 2.91831 -0.134662 -3.40625 -0.134662 0.346069 -0.938209 0 -1.2028 -0.952893 0
6 1 -1.60541 0.0762123 -1.60541 0.0762123 -0.630371 -0.776294 0 0.476761 0.93503 0
7 1 3.18229 1.6397 -3.14226 1.6397 -0.647533 0.762037 0 -0.448384 1.27331 0
8 1 -1.4131 1.5458 -1.4131 1.5458 -0.591381 0.806392 0 0.747709 -1.00594 0
9 1 -0.0259274 3.3504 -0.0259274 -2.97416 0.717358 0.696705 0 0.433156 1.39487 0
10 1 1.56548 3.2219 1.56548 -3.10265 0.340409 0.940277 0 -0.151804 -0.766575 0
11 1 -0.0233855 -1.62108 -0.0233855 -1.62108 -0.984634 -0.174633 0 0.0791666 -0.682258 0
12 1 1.51515 -1.46305 1.51515 -1.46305 0.489782 -0.871845 0 -0.429153 0.879677 0
13 1 0.120776 -0.00709857 0.120776 -0.00709857 -0.713108 -0.701054 0 1.00415 0.456089 0
14 1 1.45982 0.0313233 1.45982 0.0313233 -0.713158 0.701003 0 0.00150541 -1.02844 0
15 1 0.077098 1.52116 0.077098 1.52116 0.579389 0.815051 0 0.0758224 -0.999193 0
16 1 1.57218 1.74286 1.57218 1.74286 -0.934836 0.355079 0 -0.476436 0.62929 0
ITEM: TIMESTEP
550
ITEM: NUMBER OF ATOMS
16
ITEM: BOX BOUNDS pp pp pp
-3.1622776601683795e+00 3.1622776601683795e+00
-3.1622776601683795e+00 3.1622776601683795e+00
-3.1622776601683800e-01 3.1622776601683800e-01
ITEM: ATOMS id type x y xu yu mux muy muz fx fy fz
1 1 3.13288 3.0894 -3.19168 -3.23515 -0.945307 0.326182 0 0.474733 -0.758144 0
2 1 -1.72642 -3.04959 -1.72642 -3.04959 0.37093 -0.928661 0 -0.700804 1.19794 0
3 1 -3.12122 -1.47548 -3.12122 -1.47548 -0.855663 -0.517534 0 0.204783 1.02522 0
4 1 -1.54617 -1.66363 -1.54617 -1.66363 0.997254 0.074051 0 0.280371 -1.35373 0
5 1 2.93589 -0.135603 -3.38866 -0.135603 0.351574 -0.93616 0 -1.1249 -1.12736 0
6 1 -1.57686 0.0842994 -1.57686 0.0842994 -0.651528 -0.758625 0 0.541767 1.01337 0
7 1 3.16679 1.59797 -3.15776 1.59797 -0.632713 0.774387 0 -0.486723 1.12637 0
8 1 -1.44391 1.57054 -1.44391 1.57054 -0.603982 0.796998 0 0.428181 -0.906425 0
9 1 -0.0112524 3.32652 -0.0112524 -2.99803 0.734785 0.678301 0 0.472027 1.45599 0
10 1 1.55599 3.23763 1.55599 -3.08692 0.307769 0.951461 0 -0.150776 -0.734427 0
11 1 -0.0564506 -1.61776 -0.0564506 -1.61776 -0.983401 -0.181445 0 -0.272008 -0.903264 0
12 1 1.49956 -1.465 1.49956 -1.465 0.5099 -0.860234 0 -0.51813 0.735726 0
13 1 0.114131 0.00834667 0.114131 0.00834667 -0.731828 -0.681489 0 1.10271 0.584217 0
14 1 1.48147 0.0418287 1.48147 0.0418287 -0.700893 0.713267 0 -0.19575 -0.817171 0
15 1 0.115914 1.52476 0.115914 1.52476 0.542299 0.840186 0 0.570869 -0.963366 0
16 1 1.56499 1.73609 1.56499 1.73609 -0.929224 0.369516 0 -0.626351 0.425062 0
ITEM: TIMESTEP
600
ITEM: NUMBER OF ATOMS
16
ITEM: BOX BOUNDS pp pp pp
-3.1622776601683795e+00 3.1622776601683795e+00
-3.1622776601683795e+00 3.1622776601683795e+00
-3.1622776601683800e-01 3.1622776601683800e-01
ITEM: ATOMS id type x y xu yu mux muy muz fx fy fz
1 1 3.10371 3.06282 -3.22084 -3.26174 -0.957805 0.28742 0 0.32689 -0.861936 0
2 1 -1.71726 -3.06013 -1.71726 -3.06013 0.394731 -0.918797 0 -0.509444 1.11518 0
3 1 -3.18219 -1.5008 -3.18219 -1.5008 -0.862131 -0.506685 0 -0.22827 1.13074 0
4 1 -1.53867 -1.67157 -1.53867 -1.67157 0.999422 0.0339871 0 0.513088 -1.4252 0
5 1 2.95766 -0.127182 -3.3669 -0.127182 0.36839 -0.929671 0 -0.943705 -1.19978 0
6 1 -1.52255 0.0910715 -1.52255 0.0910715 -0.638504 -0.769618 0 0.758537 1.06656 0
7 1 3.16381 1.59726 -3.16074 1.59726 -0.605866 0.795567 0 -0.50573 1.20469 0
8 1 -1.44686 1.58254 -1.44686 1.58254 -0.60614 0.795358 0 0.379632 -0.815415 0
9 1 -0.00127423 3.36652 -0.00127423 -2.95803 0.75358 0.657356 0 0.707775 1.26644 0
10 1 1.523 3.25218 1.523 -3.07238 0.345925 0.938262 0 -0.379403 -0.348501 0
11 1 -0.0297638 -1.61929 -0.0297638 -1.61929 -0.987065 -0.16032 0 0.0527978 -0.796212 0
12 1 1.4917 -1.49295 1.4917 -1.49295 0.479862 -0.877344 0 -0.610906 0.2789 0
13 1 0.113252 0.0422763 0.113252 0.0422763 -0.780011 -0.625766 0 0.540387 0.719703 0
14 1 1.43382 0.0528265 1.43382 0.0528265 -0.699289 0.714839 0 -0.102015 -0.527602 0
15 1 0.135727 1.55244 0.135727 1.55244 0.539201 0.842177 0 0.774932 -1.10064 0
16 1 1.56014 1.72261 1.56014 1.72261 -0.935991 0.352025 0 -0.774566 0.293061 0
ITEM: TIMESTEP
650
ITEM: NUMBER OF ATOMS
16
ITEM: BOX BOUNDS pp pp pp
-3.1622776601683795e+00 3.1622776601683795e+00
-3.1622776601683795e+00 3.1622776601683795e+00
-3.1622776601683800e-01 3.1622776601683800e-01
ITEM: ATOMS id type x y xu yu mux muy muz fx fy fz
1 1 3.10284 3.0505 -3.22172 -3.27405 -0.966903 0.255144 0 0.643666 -0.982711 0
2 1 -1.76616 -3.04478 -1.76616 -3.04478 0.417045 -0.908886 0 -0.661199 0.910237 0
3 1 -3.21421 -1.48795 -3.21421 -1.48795 -0.847442 -0.530887 0 -0.141298 1.05404 0
4 1 -1.56218 -1.69965 -1.56218 -1.69965 0.999893 0.0146607 0 0.502766 -1.29284 0
5 1 2.93482 -0.146889 -3.38973 -0.146889 0.404823 -0.914395 0 -1.11706 -1.14743 0
6 1 -1.4821 0.028166 -1.4821 0.028166 -0.57703 -0.816723 0 1.11215 0.50945 0
7 1 3.20365 1.61007 -3.1209 1.61007 -0.620951 0.78385 0 -0.216694 1.44613 0
8 1 -1.42454 1.63214 -1.42454 1.63214 -0.589033 0.808109 0 0.536535 -0.350989 0
9 1 -0.0432063 3.38585 -0.0432063 -2.93871 0.760181 0.649711 0 0.54176 -0.379425 0
10 1 1.50669 3.19372 1.50669 -3.13083 0.367149 0.930162 0 -0.309763 -0.903804 0
11 1 -0.0312518 -1.67744 -0.0312518 -1.67744 -0.992116 -0.125321 0 0.131559 0.776594 0
12 1 1.45129 -1.48686 1.45129 -1.48686 0.468543 -0.88344 0 -0.748168 0.33688 0
13 1 0.0804562 0.0507966 0.0804562 0.0507966 -0.787174 -0.616731 0 0.611047 1.04477 0
14 1 1.43364 0.0925761 1.43364 0.0925761 -0.696583 0.717476 0 -0.429461 -0.35256 0
15 1 0.108 1.53477 0.108 1.53477 0.493761 0.869598 0 0.630106 -1.17809 0
16 1 1.51571 1.73943 1.51571 1.73943 -0.942321 0.334711 0 -1.08595 0.509746 0
ITEM: TIMESTEP
700
ITEM: NUMBER OF ATOMS
16
ITEM: BOX BOUNDS pp pp pp
-3.1622776601683795e+00 3.1622776601683795e+00
-3.1622776601683795e+00 3.1622776601683795e+00
-3.1622776601683800e-01 3.1622776601683800e-01
ITEM: ATOMS id type x y xu yu mux muy muz fx fy fz
1 1 3.05922 3.01365 -3.26534 -3.31091 -0.950952 0.309338 0 0.261447 -1.16601 0
2 1 -1.77522 -3.02827 -1.77522 -3.02827 0.428298 -0.903638 0 -0.683081 -0.818213 0
3 1 -3.21417 -1.46153 -3.21417 -1.46153 -0.858345 -0.513074 0 -0.42807 0.982006 0
4 1 -1.54775 -1.78361 -1.54775 -1.78361 0.999829 0.0184828 0 0.960127 0.285466 0
5 1 2.86544 -0.150836 -3.45912 -0.150836 0.447753 -0.894157 0 -1.55704 -0.91959 0
6 1 -1.49751 0.0319356 -1.49751 0.0319356 -0.595796 -0.803136 0 0.971052 0.605315 0
7 1 3.17371 1.61033 -3.15085 1.61033 -0.6035 0.797363 0 -0.608212 1.56652 0
8 1 -1.3845 1.64693 -1.3845 1.64693 -0.603089 0.797674 0 0.861672 -0.291162 0
9 1 -0.0603126 3.39422 -0.0603126 -2.93033 0.720532 0.693422 0 0.305939 0.558134 0
10 1 1.51248 3.19026 1.51248 -3.13429 0.392699 0.919667 0 0.00896019 -1.01745 0
11 1 -0.00898313 -1.6461 -0.00898313 -1.6461 -0.992484 -0.122378 0 0.126309 -0.166788 0
12 1 1.48418 -1.45999 1.48418 -1.45999 0.466655 -0.884439 0 -0.567887 0.716594 0
13 1 0.116962 0.0487066 0.116962 0.0487066 -0.822122 -0.569312 0 0.603006 0.769648 0
14 1 1.44202 0.0985036 1.44202 0.0985036 -0.683984 0.729497 0 0.185535 -0.454041 0
15 1 0.119371 1.57849 0.119371 1.57849 0.475203 0.879876 0 0.536621 -1.00166 0
16 1 1.51699 1.72044 1.51699 1.72044 -0.940669 0.339327 0 -0.976375 0.351229 0
ITEM: TIMESTEP
750
ITEM: NUMBER OF ATOMS
16
ITEM: BOX BOUNDS pp pp pp
-3.1622776601683795e+00 3.1622776601683795e+00
-3.1622776601683795e+00 3.1622776601683795e+00
-3.1622776601683800e-01 3.1622776601683800e-01
ITEM: ATOMS id type x y xu yu mux muy muz fx fy fz
1 1 3.05394 3.03877 -3.27061 -3.28579 -0.940475 0.339862 0 0.402221 -0.9713 0
2 1 -1.80851 -3.01143 -1.80851 -3.01143 0.420156 -0.907452 0 -0.874769 -0.0508591 0
3 1 -3.21724 -1.48696 -3.21724 -1.48696 -0.86782 -0.496879 0 -0.413395 1.16568 0
4 1 -1.56791 -1.74771 -1.56791 -1.74771 0.999949 -0.0100765 0 0.690252 -0.290561 0
5 1 2.85094 -0.113903 -3.47362 -0.113903 0.417435 -0.908707 0 -1.60526 -1.35061 0
6 1 -1.52324 0.0213418 -1.52324 0.0213418 -0.59075 -0.806855 0 0.99746 0.342681 0
7 1 3.21893 1.63655 -3.10563 1.63655 -0.60783 0.794067 0 -0.466469 1.57657 0
8 1 -1.33095 1.66329 -1.33095 1.66329 -0.633506 0.773737 0 0.998958 -0.282186 0
9 1 -0.0364005 3.44211 -0.0364005 -2.88245 0.686549 0.727084 0 0.554883 0.037518 0
10 1 1.52005 3.24289 1.52005 -3.08167 0.411886 0.911235 0 -0.0238445 -0.924576 0
11 1 -0.0245224 -1.61207 -0.0245224 -1.61207 -0.993986 -0.10951 0 0.106068 0.60526 0
12 1 1.49684 -1.42295 1.49684 -1.42295 0.44238 -0.896828 0 -0.458989 1.05896 0
13 1 0.0884426 0.0238268 0.0884426 0.0238268 -0.820102 -0.572218 0 0.915648 0.319523 0
14 1 1.45567 0.0448226 1.45567 0.0448226 -0.701787 0.712387 0 -0.0229824 -1.19792 0
15 1 0.132339 1.59209 0.132339 1.59209 0.465776 0.884903 0 0.278094 -0.753496 0
16 1 1.50496 1.77233 1.50496 1.77233 -0.945238 0.326383 0 -1.07788 0.71532 0
ITEM: TIMESTEP
800
ITEM: NUMBER OF ATOMS
16
ITEM: BOX BOUNDS pp pp pp
-3.1622776601683795e+00 3.1622776601683795e+00
-3.1622776601683795e+00 3.1622776601683795e+00
-3.1622776601683800e-01 3.1622776601683800e-01
ITEM: ATOMS id type x y xu yu mux muy muz fx fy fz
1 1 3.07111 3.05628 -3.25345 -3.26828 -0.943952 0.330084 0 0.883722 -0.924506 0
2 1 -1.83091 -3.03457 -1.83091 -3.03457 0.4204 -0.907339 0 -1.06549 0.84541 0
3 1 -3.21233 -1.48846 -3.21233 -1.48846 -0.867556 -0.497339 0 -0.226288 1.06633 0
4 1 -1.59246 -1.70925 -1.59246 -1.70925 0.996588 -0.0825333 0 0.164891 -0.969074 0
5 1 2.84371 -0.147898 -3.48084 -0.147898 0.418013 -0.908441 0 -1.45144 -1.36494 0
6 1 -1.5633 -0.0134903 -1.5633 -0.0134903 -0.595545 -0.803322 0 1.01005 -0.0555862 0
7 1 3.22454 1.66324 -3.10001 1.66324 -0.622197 0.782861 0 -0.169854 1.70753 0
8 1 -1.34079 1.66996 -1.34079 1.66996 -0.604396 0.796684 0 1.0035 -0.122714 0
9 1 -0.00260837 3.49849 -0.00260837 -2.82606 0.734925 0.678148 0 1.07434 -0.890721 0
10 1 1.48013 3.26705 1.48013 -3.05751 0.410653 0.911792 0 -0.607016 -0.618598 0
11 1 -0.0181996 -1.57763 -0.0181996 -1.57763 -0.991113 -0.133022 0 0.144532 1.98408 0
12 1 1.51086 -1.4393 1.51086 -1.4393 0.438035 -0.898958 0 -0.450109 0.578494 0
13 1 0.0316105 -0.0547021 0.0316105 -0.0547021 -0.816016 -0.57803 0 0.861798 -0.285334 0
14 1 1.44835 0.112587 1.44835 0.112587 -0.723386 0.690444 0 -0.14594 -0.824362 0
15 1 0.0900263 1.58524 0.0900263 1.58524 0.494991 0.868898 0 0.14229 -0.534642 0
16 1 1.43473 1.76967 1.43473 1.76967 -0.958622 0.284683 0 -1.16898 0.408623 0
ITEM: TIMESTEP
850
ITEM: NUMBER OF ATOMS
16
ITEM: BOX BOUNDS pp pp pp
-3.1622776601683795e+00 3.1622776601683795e+00
-3.1622776601683795e+00 3.1622776601683795e+00
-3.1622776601683800e-01 3.1622776601683800e-01
ITEM: ATOMS id type x y xu yu mux muy muz fx fy fz
1 1 3.06053 3.00301 -3.26402 -3.32155 -0.930536 0.366201 0 0.9119 -1.17422 0
2 1 -1.82278 -3.03316 -1.82278 -3.03316 0.404872 -0.914373 0 -1.00547 0.901362 0
3 1 -3.20589 -1.43133 -3.20589 -1.43133 -0.836628 -0.547772 0 -0.283967 1.3183 0
4 1 -1.56358 -1.66081 -1.56358 -1.66081 0.99304 -0.11778 0 0.39152 -0.740162 0
5 1 2.86475 -0.0987632 -3.4598 -0.0987632 0.432193 -0.901781 0 -1.14798 -1.2536 0
6 1 -1.58733 -0.0353649 -1.58733 -0.0353649 -0.580518 -0.814248 0 0.656883 -0.393023 0
7 1 3.25177 1.64636 -3.07278 1.64636 -0.617542 0.786538 0 -0.0434063 1.5454 0
8 1 -1.35834 1.65952 -1.35834 1.65952 -0.575428 0.817852 0 0.640503 -0.0403289 0
9 1 0.0658309 3.44946 0.0658309 -2.8751 0.762233 0.647303 0 1.45663 1.08747 0
10 1 1.45839 3.26847 1.45839 -3.05608 0.382155 0.924098 0 -1.03789 -0.984688 0
11 1 -0.0415366 -1.54521 -0.0415366 -1.54521 -0.996338 -0.0855064 0 0.0121568 0.120004 0
12 1 1.51241 -1.39666 1.51241 -1.39666 0.424672 -0.905347 0 -0.48864 0.792493 0
13 1 0.0646991 -0.0953166 0.0646991 -0.0953166 -0.813013 -0.582245 0 1.04289 -0.793179 0
14 1 1.40661 0.148002 1.40661 0.148002 -0.737016 0.675875 0 -0.310251 -0.900676 0
15 1 0.1367 1.61055 0.1367 1.61055 0.52736 0.849642 0 -0.0869275 -0.286234 0
16 1 1.42865 1.8142 1.42865 1.8142 -0.957421 0.288694 0 -0.707958 0.801089 0
ITEM: TIMESTEP
900
ITEM: NUMBER OF ATOMS
16
ITEM: BOX BOUNDS pp pp pp
-3.1622776601683795e+00 3.1622776601683795e+00
-3.1622776601683795e+00 3.1622776601683795e+00
-3.1622776601683800e-01 3.1622776601683800e-01
ITEM: ATOMS id type x y xu yu mux muy muz fx fy fz
1 1 2.99925 2.96912 -3.32531 -3.35544 -0.921289 0.388879 0 0.322247 -0.522224 0
2 1 -1.83916 -3.07953 -1.83916 -3.07953 0.419972 -0.907537 0 -0.845467 0.467117 0
3 1 -3.21582 -1.44104 -3.21582 -1.44104 -0.850112 -0.526603 0 -0.607728 1.48453 0
4 1 -1.54064 -1.6267 -1.54064 -1.6267 0.996362 -0.0852248 0 0.189571 -0.530252 0
5 1 2.81639 -0.0946865 -3.50817 -0.0946865 0.427315 -0.904103 0 -1.30562 -1.46129 0
6 1 -1.63175 -0.0211519 -1.63175 -0.0211519 -0.63779 -0.77021 0 0.456427 -0.464547 0
7 1 3.27884 1.69628 -3.04571 1.69628 -0.576732 0.816933 0 -0.0329862 1.11103 0
8 1 -1.30218 1.67327 -1.30218 1.67327 -0.539917 0.841718 0 0.87434 0.244515 0
9 1 0.0537569 3.42396 0.0537569 -2.9006 0.753002 0.658018 0 1.57301 1.09158 0
10 1 1.48013 3.32535 1.48013 -2.99921 0.382619 0.923906 0 -0.770478 -0.894826 0
11 1 0.0443732 -1.54563 0.0443732 -1.54563 -0.996434 -0.0843769 0 0.484866 -0.0198524 0
12 1 1.52467 -1.39023 1.52467 -1.39023 0.417832 -0.908524 0 -0.547728 0.487335 0
13 1 0.0892031 -0.0765362 0.0892031 -0.0765362 -0.822302 -0.569051 0 1.07144 -0.913117 0
14 1 1.39357 0.172733 1.39357 0.172733 -0.735852 0.677143 0 0.130347 -0.927906 0
15 1 0.129139 1.6749 0.129139 1.6749 0.511679 0.859176 0 -0.00970259 0.0254481 0
16 1 1.44737 1.85009 1.44737 1.85009 -0.953033 0.302865 0 -0.982547 0.822453 0
ITEM: TIMESTEP
950
ITEM: NUMBER OF ATOMS
16
ITEM: BOX BOUNDS pp pp pp
-3.1622776601683795e+00 3.1622776601683795e+00
-3.1622776601683795e+00 3.1622776601683795e+00