units           lj
atom_style      hybrid dipole sphere
WARNING: Atom_style hybrid defines both pertype and peratom masses - both must be set, only peratom masses will be used (src/atom_vec_hybrid.cpp:157)
dimension       2
newton off


lattice         sq 0.4
Lattice spacing in x,y,z = 1.5811388 1.5811388 1.5811388
region          box block -2 2 -2 2 -0.2 0.2
create_box      1 box
Created orthogonal box = (-3.1622777 -3.1622777 -0.31622777) to (3.1622777 3.1622777 0.31622777)
  2 by 2 by 1 MPI processor grid
create_atoms    1 box
Created 16 atoms
  create_atoms CPU = 0.000 seconds
mass            * 1.0
set             type  * dipole/random 191019 1.0
Setting atom values ...
  16 settings made for dipole/random
velocity        all create 1.0 1 loop geom


neighbor        1.0 bin
neigh_modify    every 1 delay 1 check yes



pair_style lj/cut 2.5
pair_coeff * * 1.0 1.122462
pair_modify shift yes


# MSD
compute         msd  all msd

#compute      d  all property/atom  mux muy muz

fix         1 all bd/sphere 1.0 1.0 1.0 1.0 529410 rng gaussian rotate_planar yes
fix         2 all enforce2d




thermo_style    custom step temp epair

#equilibration
timestep        0.0000000001
thermo          500
run             50000
Neighbor list info ...
  update every 1 steps, delay 1 steps, check yes
  max neighbors/atom: 2000, page size: 100000
  master list distance cutoff = 3.5
  ghost atom cutoff = 3.5
  binsize = 1.75, bins = 4 4 1
  1 neighbor lists, perpetual/occasional/extra = 1 0 0
  (1) pair lj/cut, perpetual
      attributes: half, newton off
      pair build: half/bin/newtoff
      stencil: half/bin/2d/newtoff
      bin: standard
Per MPI rank memory allocation (min/avg/max) = 5.312 | 5.312 | 5.312 Mbytes
Step Temp E_pair 
       0            1  -0.88888155 
     500 8.2016719e+09  -0.88888217 
    1000 6.8499186e+09  -0.88888407 
    1500 1.0068939e+10  -0.88888442 
    2000 1.3181563e+10  -0.88888609 
    2500 1.2303713e+10   -0.8888862 
    3000 4.3159317e+09  -0.88888608 
    3500 9.6682164e+09  -0.88888671 
    4000   8.8559e+09  -0.88888808 
    4500 8.9807554e+09  -0.88889008 
    5000 8.1032098e+09  -0.88889299 
    5500 9.7885095e+09  -0.88889346 
    6000 8.5089799e+09    -0.888893 
    6500 1.071582e+10  -0.88889152 
    7000 5.5019458e+09  -0.88889507 
    7500 1.1537645e+10  -0.88889239 
    8000 1.1463835e+10   -0.8888928 
    8500 1.1850607e+10  -0.88889698 
    9000 1.3161957e+10  -0.88889583 
    9500 1.1797754e+10  -0.88889608 
   10000 1.3329335e+10  -0.88889898 
   10500 1.1295033e+10  -0.88890136 
   11000 1.411005e+10  -0.88890344 
   11500 1.0873425e+10   -0.8889072 
   12000 9.9503902e+09  -0.88891025 
   12500 1.0530987e+10   -0.8889106 
   13000 1.0827027e+10  -0.88890828 
   13500 1.4879745e+10  -0.88890828 
   14000 1.0186857e+10  -0.88890679 
   14500 9.5520505e+09  -0.88890917 
   15000 5.9270168e+09   -0.8889077 
   15500 1.243613e+10  -0.88890768 
   16000 8.9928725e+09  -0.88890951 
   16500 1.0933064e+10  -0.88891304 
   17000 1.0333486e+10  -0.88891357 
   17500 8.4133499e+09  -0.88891707 
   18000 9.9803358e+09  -0.88891743 
   18500 9.6044454e+09  -0.88891888 
   19000 7.2734377e+09  -0.88892114 
   19500 1.232075e+10  -0.88892327 
   20000 8.203115e+09  -0.88892281 
   20500 1.069801e+10  -0.88892815 
   21000 1.2377273e+10  -0.88892259 
   21500 1.091912e+10  -0.88892008 
   22000 1.1593094e+10   -0.8889252 
   22500 1.459649e+10  -0.88892485 
   23000 1.2104112e+10  -0.88892682 
   23500 1.0025203e+10  -0.88892712 
   24000 1.6001776e+10  -0.88893036 
   24500 1.0808301e+10  -0.88893261 
   25000 1.0897356e+10  -0.88893158 
   25500 8.145187e+09  -0.88893262 
   26000 1.1625304e+10   -0.8889309 
   26500 1.2975697e+10  -0.88893003 
   27000 1.1045742e+10  -0.88893027 
   27500 9.146843e+09  -0.88893183 
   28000 8.2658825e+09  -0.88893173 
   28500 1.1061961e+10  -0.88893392 
   29000 8.8466454e+09  -0.88893922 
   29500 1.1489145e+10  -0.88894049 
   30000 8.9894421e+09  -0.88894287 
   30500 9.7520453e+09  -0.88894572 
   31000  7.52038e+09  -0.88895143 
   31500 8.6156707e+09  -0.88895266 
   32000 1.1352695e+10  -0.88895874 
   32500 8.0588115e+09   -0.8889603 
   33000 1.3233991e+10  -0.88896259 
   33500 1.1297515e+10  -0.88895898 
   34000 1.078353e+10  -0.88895798 
   34500 1.4737602e+10  -0.88896019 
   35000 1.4907097e+10  -0.88896414 
   35500  1.04414e+10  -0.88896267 
   36000 7.6145015e+09  -0.88896411 
   36500 1.3464506e+10  -0.88896499 
   37000 8.4262309e+09  -0.88896801 
   37500 1.0470083e+10  -0.88897021 
   38000 1.6772195e+10  -0.88896688 
   38500 7.7510722e+09  -0.88896723 
   39000 1.3380748e+10  -0.88897178 
   39500 9.9917556e+09  -0.88897285 
   40000 1.1190117e+10  -0.88897786 
   40500 1.9733145e+10  -0.88897717 
   41000 1.2438075e+10  -0.88897418 
   41500 9.5397999e+09  -0.88897337 
   42000 1.2163982e+10  -0.88897176 
   42500 1.3452383e+10  -0.88896952 
   43000 1.2752549e+10  -0.88896774 
   43500 8.9336127e+09  -0.88897392 
   44000 1.4683483e+10  -0.88897108 
   44500 1.4322582e+10   -0.8889717 
   45000 1.4228642e+10  -0.88897501 
   45500 8.6242215e+09  -0.88897283 
   46000 1.6181689e+10  -0.88896863 
   46500 1.3600599e+10  -0.88897454 
   47000 1.5396784e+10  -0.88897658 
   47500 9.7307891e+09  -0.88897539 
   48000 7.3629956e+09  -0.88897781 
   48500 1.7056529e+10  -0.88897562 
   49000 1.0285458e+10  -0.88897679 
   49500 1.1897461e+10  -0.88897133 
   50000 1.4540234e+10  -0.88896842 
Loop time of 0.418137 on 4 procs for 50000 steps with 16 atoms

Performance: 1.033 tau/day, 119577.972 timesteps/s
99.5% CPU use with 4 MPI tasks x 1 OpenMP threads

MPI task timing breakdown:
Section |  min time  |  avg time  |  max time  |%varavg| %total
---------------------------------------------------------------
Pair    | 0.017494   | 0.017984   | 0.018233   |   0.2 |  4.30
Neigh   | 0          | 0          | 0          |   0.0 |  0.00
Comm    | 0.24679    | 0.24889    | 0.25223    |   0.4 | 59.52
Output  | 0.0011646  | 0.0013358  | 0.0018264  |   0.8 |  0.32
Modify  | 0.060336   | 0.06092    | 0.061539   |   0.2 | 14.57
Other   |            | 0.08901    |            |       | 21.29

Nlocal:        4.00000 ave           4 max           4 min
Histogram: 4 0 0 0 0 0 0 0 0 0
Nghost:        45.0000 ave          45 max          45 min
Histogram: 4 0 0 0 0 0 0 0 0 0
Neighs:        42.0000 ave          42 max          42 min
Histogram: 4 0 0 0 0 0 0 0 0 0

Total # of neighbors = 168
Ave neighs/atom = 10.500000
Neighbor list builds = 0
Dangerous builds = 0
reset_timestep  0


#initialisation for the main run

thermo_style    custom step temp epair c_msd[*]


# write trajectory and thermo in a log-scale frequency
dump            1 all custom 50 dump_dummy.lammpstrj id type 		x y xu yu mux muy muz fx fy fz
dump_modify     1 first yes sort id

timestep        0.00001
thermo          50

# main run
run             1000
Per MPI rank memory allocation (min/avg/max) = 6.579 | 6.579 | 6.579 Mbytes
Step Temp E_pair c_msd[1] c_msd[2] c_msd[3] c_msd[4] 
       0 1.4540234e+10  -0.88896842 2.2126195e-05 8.9379928e-06 1.0587471e-05 4.1651659e-05 
      50    139619.25   -0.8949175 0.0016614122 0.00045244016 0.00077884027 0.0028926926 
     100    76179.544  -0.90031022 0.0024587206  0.001478214 0.00080950711 0.0047464417 
     150    125197.35  -0.90892884 0.0038169588 0.0021743344 0.0015361695 0.0075274627 
     200    118903.76  -0.90604778 0.0036736588 0.0042161149 0.0025567061   0.01044648 
     250       111351  -0.90784038 0.0036887494 0.0042258209  0.002277681  0.010192251 
     300    49991.904  -0.91392634 0.0037071407 0.0042512218 0.0025030973   0.01046146 
     350    150482.04  -0.90854417 0.0044133872 0.0035538607 0.0042648047  0.012232053 
     400    146216.88  -0.91947876 0.0068295582 0.0055892515 0.0061208194  0.018539629 
     450    106445.75  -0.92692397 0.0084613974 0.0061931628 0.0079198217  0.022574382 
     500    123032.46  -0.94001658 0.0098234138 0.0097195452  0.011057491   0.03060045 
     550    107109.69  -0.92485953 0.0088910729 0.0086476248  0.016159865  0.033698563 
     600    89867.878  -0.93066493 0.0095720312 0.0090084367  0.013375486  0.031955954 
     650    110357.27  -0.94695337  0.012376387  0.011395604   0.01365042  0.037422411 
     700    69290.657  -0.95489565  0.015952082  0.014329151  0.017968862  0.048250095 
     750    133073.78  -0.95930136  0.018272698  0.015494014  0.013889989  0.047656702 
     800    98289.532  -0.95114968   0.01877662  0.017788114  0.018274914  0.054839648 
     850    123104.68  -0.95874509  0.019975023  0.019217039  0.018481224  0.057673286 
     900    126267.32  -0.95903957  0.025451911  0.021663376  0.017814365  0.064929653 
     950    170541.95  -0.96767818  0.027138173  0.023836708  0.020322409  0.071297289 
    1000    124600.71  -0.96805494  0.029908887  0.023825101  0.022110634  0.075844622 
Loop time of 0.0104416 on 4 procs for 1000 steps with 16 atoms

Performance: 82746.017 tau/day, 95770.853 timesteps/s
100.0% CPU use with 4 MPI tasks x 1 OpenMP threads

MPI task timing breakdown:
Section |  min time  |  avg time  |  max time  |%varavg| %total
---------------------------------------------------------------
Pair    | 0.0001633  | 0.00035776 | 0.00054192 |   0.0 |  3.43
Neigh   | 0          | 0          | 0          |   0.0 |  0.00
Comm    | 0.0052363  | 0.0054092  | 0.0056007  |   0.2 | 51.80
Output  | 0.0010394  | 0.001068   | 0.00112    |   0.1 | 10.23
Modify  | 0.00044133 | 0.0012219  | 0.0020001  |   1.6 | 11.70
Other   |            | 0.002385   |            |       | 22.84

Nlocal:        4.00000 ave           7 max           1 min
Histogram: 1 0 0 0 0 2 0 0 0 1
Nghost:        45.0000 ave          48 max          42 min
Histogram: 1 0 0 0 0 2 0 0 0 1
Neighs:        41.0000 ave          67 max          12 min
Histogram: 1 0 0 0 0 2 0 0 0 1

Total # of neighbors = 164
Ave neighs/atom = 10.250000
Neighbor list builds = 0
Dangerous builds = 0

run 		300
Per MPI rank memory allocation (min/avg/max) = 6.579 | 6.579 | 6.579 Mbytes
Step Temp E_pair c_msd[1] c_msd[2] c_msd[3] c_msd[4] 
    1000    124600.71  -0.96805494  0.029908887  0.023825101  0.022110634  0.075844622 
    1050    88072.492  -0.98182287  0.031079048  0.027367987  0.022144908  0.080591943 
    1100    100330.16  -0.95767373  0.028219947  0.028344763  0.023443659   0.08000837 
    1150     120110.9  -0.96745772   0.03284692  0.028838985  0.024031464  0.085717369 
    1200    98973.288  -0.98386051  0.031576487  0.028242669  0.025583624   0.08540278 
    1250    118222.38   -1.0114771  0.035593566  0.029482831  0.023885159  0.088961556 
    1300    116183.32  -0.95969382  0.036285392  0.031763055    0.0234857  0.091534147 
Loop time of 0.00357348 on 4 procs for 300 steps with 16 atoms

Performance: 72534.296 tau/day, 83951.731 timesteps/s
99.9% CPU use with 4 MPI tasks x 1 OpenMP threads

MPI task timing breakdown:
Section |  min time  |  avg time  |  max time  |%varavg| %total
---------------------------------------------------------------
Pair    | 7.2118e-05 | 0.00011982 | 0.00018724 |   0.0 |  3.35
Neigh   | 0          | 0          | 0          |   0.0 |  0.00
Comm    | 0.0016395  | 0.0018577  | 0.0020575  |   0.4 | 51.99
Output  | 0.00035867 | 0.00036869 | 0.00038773 |   0.0 | 10.32
Modify  | 0.00020705 | 0.00037414 | 0.00061875 |   0.0 | 10.47
Other   |            | 0.0008531  |            |       | 23.87

Nlocal:        4.00000 ave           7 max           2 min
Histogram: 1 0 1 0 1 0 0 0 0 1
Nghost:        45.0000 ave          47 max          42 min
Histogram: 1 0 0 0 0 0 1 0 1 1
Neighs:        52.0000 ave          85 max          27 min
Histogram: 1 0 1 0 1 0 0 0 0 1

Total # of neighbors = 208
Ave neighs/atom = 13.000000
Neighbor list builds = 0
Dangerous builds = 0

run		500
Per MPI rank memory allocation (min/avg/max) = 6.579 | 6.579 | 6.579 Mbytes
Step Temp E_pair c_msd[1] c_msd[2] c_msd[3] c_msd[4] 
    1300    116183.32  -0.95969382  0.036285392  0.031763055    0.0234857  0.091534147 
    1350    82063.626  -0.98123376  0.032988756  0.031144415  0.022162069  0.086295241 
    1400    80171.134  -0.97134442  0.035740393  0.032014223  0.028965447  0.096720062 
    1450    80371.957  -0.97882026  0.037170739  0.035313907    0.0316619   0.10414655 
    1500    87932.214  -0.98588974  0.042281728  0.041632284  0.035002641   0.11891665 
    1550    77423.884  -0.94600721   0.04646918  0.044223253   0.03988641   0.13057884 
    1600     121975.8  -0.99503509  0.047109208  0.045721372  0.036773878   0.12960446 
    1650    150488.13   -1.0219149  0.049799932  0.041300677  0.036339484   0.12744009 
    1700    84122.873   -1.0230872  0.047698046  0.040913393  0.037373957    0.1259854 
    1750    138454.58  -0.95521903  0.045983166  0.042595171  0.038575644   0.12715398 
    1800    144098.52  -0.98445589  0.043743798  0.044311649  0.042251952    0.1303074 
Loop time of 0.00593721 on 4 procs for 500 steps with 16 atoms

Performance: 72761.482 tau/day, 84214.679 timesteps/s
85.0% CPU use with 4 MPI tasks x 1 OpenMP threads

MPI task timing breakdown:
Section |  min time  |  avg time  |  max time  |%varavg| %total
---------------------------------------------------------------
Pair    | 0.00013245 | 0.00020142 | 0.00030798 |   0.0 |  3.39
Neigh   | 0          | 0          | 0          |   0.0 |  0.00
Comm    | 0.0025943  | 0.0029187  | 0.0032271  |   0.5 | 49.16
Output  | 0.00079376 | 0.00081803 | 0.00086392 |   0.0 | 13.78
Modify  | 0.00038342 | 0.00064953 | 0.0010693  |   0.0 | 10.94
Other   |            | 0.00135    |            |       | 22.73

Nlocal:        4.00000 ave           7 max           2 min
Histogram: 1 0 1 0 1 0 0 0 0 1
Nghost:        44.0000 ave          46 max          40 min
Histogram: 1 0 0 0 0 0 0 0 2 1
Neighs:        50.5000 ave          81 max          29 min
Histogram: 1 1 0 0 1 0 0 0 0 1

Total # of neighbors = 202
Ave neighs/atom = 12.625000
Neighbor list builds = 0
Dangerous builds = 0


Total wall time: 0:00:00
